 -4.2233520e+00   9.7361699e-02
 -4.6601706e+00   7.5538807e-02
 -7.3962563e-01   4.0667299e-02
  3.4939107e-01   4.5072239e-02
 -1.0178035e+00   6.8365686e-02
 -1.1767608e+00   8.0237925e-02
 -4.1140816e-01   6.7951262e-02
 -1.2829425e+00   9.5256716e-02
 -8.1252396e-01   9.6760973e-02
  1.0618440e+00   8.5520819e-02
  1.4105167e+00   7.5440124e-02
 -1.7385098e+00   6.9450796e-02
  2.0593054e+00   5.9660960e-02
  4.4799158e-01   6.2501028e-02
  6.7124432e-01   6.9638386e-02
  1.0001147e+00   7.5740613e-02
 -4.9583092e+00   5.5222657e-02
 -1.2711406e-01   5.1083609e-02
  2.6094875e+00   6.8788961e-02
  1.3738362e+00   5.8141176e-02
  2.9450481e+00   9.6203886e-02
  5.6398277e+00   5.4366831e-02
  2.3768010e+00   7.9754598e-02
  1.5097376e+00   5.4471161e-02
  2.1484102e-01   6.6839986e-02
 -1.0533454e+00   8.8710189e-02
  1.2028604e+00   5.9348624e-02
 -9.1855150e-01   6.9244184e-02
  4.2135243e+00   5.8672260e-02
 -4.2884979e-01   4.7462218e-02
  2.2817492e+00   9.0829127e-02
 -1.8668745e+00   4.7780648e-02
 -2.0917873e+00   9.8241381e-02
  1.2410808e+00   5.8398988e-02
 -1.6476767e+00   8.9838855e-02
  1.1424111e+00   7.9875708e-02
 -3.0198714e-01   8.6131267e-02
  1.3496219e+00   8.2125060e-02
  6.7199367e-01   6.8644315e-02
 -4.0576129e+00   6.7427650e-02
  3.0805707e+00   4.3923028e-02
  1.3963813e-01   5.0524108e-02
  1.5276688e-02   8.7133601e-02
 -2.6117679e-01   8.6066045e-02
 -2.8614542e+00   7.7075914e-02
 -1.8806976e+00   3.6073122e-02
 -5.0224757e-01   7.6105535e-02
  2.3382503e-01   6.9104873e-02
  1.6501588e+00   9.9926427e-02
 -3.9174899e-01   8.3760485e-02
 -1.8824309e+00   6.2882245e-02
 -1.2215656e+00   5.2427314e-02
  5.4760666e+00   7.2412245e-02
 -1.2541567e-01   4.7971174e-02
 -1.5528307e+00   4.9668308e-02
  3.7297726e-02   6.2740147e-02
  1.8213024e+00   8.6464651e-02
  1.4155442e+00   6.2345907e-02
  1.2534354e+00   6.6689506e-02
  1.3831531e-01   6.6339396e-02
  1.1518377e+00   6.4424835e-02
  4.9358234e+00   8.4751382e-02
 -6.7150432e-01   9.4443291e-02
 -2.7422597e+00   8.0439113e-02
 -4.1275379e-01   6.0099937e-02
 -1.1048200e+00   5.6859400e-02
 -1.0747766e+00   6.9083370e-02
  2.4782737e-01   8.4006391e-02
 -7.2184151e-01   6.0154952e-02
 -2.0389190e+00   8.0574982e-02
 -9.2588049e-01   9.4107047e-02
  1.1908957e+00   9.7577117e-02
  2.6599497e-01   7.2847866e-02
 -4.8683268e-01   6.6743664e-02
 -1.3168768e+00   4.9735308e-02
 -1.7401901e+00   8.9639485e-02
  5.9500492e-01   8.3385810e-02
  2.4537532e+00   9.4394967e-02
 -1.7397810e+00   4.3258984e-02
  2.5126336e+00   7.3242292e-02
  1.6497983e+00   8.4429204e-02
 -3.5032511e+00   4.3743528e-02
 -8.5231102e-01   7.5601816e-02
 -1.0984015e-01   8.2350992e-02
  6.0906333e-01   6.1866280e-02
  2.1059344e+00   8.4529728e-02
  1.0028538e+00   9.4988845e-02
 -5.4886127e-03   4.9711879e-02
  1.6148350e+00   6.6947512e-02
 -2.0113661e+00   8.7639444e-02
 -1.3438742e+00   8.0422722e-02
 -2.6412845e+00   8.4799856e-02
 -1.1592160e+00   7.9694852e-02
 -5.8954114e-01   6.5794967e-02
 -6.3232072e-02   9.8083690e-02
 -2.3896608e-01   6.7603827e-02
 -1.5729743e+00   8.7394938e-02
 -8.8945550e-01   8.3350435e-02
 -1.0683471e+00   5.0143346e-02
 -4.4880122e-01   7.8186534e-02
  4.0145403e-01   5.0045095e-02
 -1.4525272e+00   6.4231150e-02
  1.0521152e+00   9.6423171e-02
  3.1901550e+00   9.3205497e-02
  1.6576340e+00   7.6629877e-02
  7.3591542e-01   4.5199230e-02
  6.4951044e-01   6.8518490e-02
  1.6958693e-01   6.6020846e-02
 -1.3028985e+00   4.0041864e-02
  7.8679460e-01   7.7028841e-02
 -1.2126163e+00   7.9492703e-02
  8.6313516e-01   3.8729880e-02
  2.0353038e+00   6.4222589e-02
  1.1374449e+00   5.8873497e-02
  4.0582194e+00   6.9016993e-02
  1.2469344e+00   4.4618621e-02
  1.7774501e+00   3.2986596e-02
  3.8778105e+00   9.4274558e-02
 -4.6625943e+00   6.1817300e-02
  1.2451706e+00   4.8923697e-02
 -7.5932479e-01   6.9241025e-02
  1.1847460e+00   6.7739338e-02
  5.1729102e+00   9.3074255e-02
 -1.7514164e+00   3.1850908e-02
  1.0976213e-01   5.2334823e-02
 -2.0083094e-01   8.6044036e-02
 -4.4130487e+00   7.2590210e-02
 -6.7036176e-01   6.7625567e-02
  2.0736437e+00   5.4170530e-02
  4.5883888e-01   7.7806585e-02
  2.8468439e-02   6.0534593e-02
 -1.0087535e-01   8.1216648e-02
 -2.3823335e+00   5.7148360e-02
 -1.0985234e+00   9.9369161e-02
 -1.4070168e+00   9.5608294e-02
  1.3430347e+00   9.3188740e-02
 -1.1506926e+00   7.2384514e-02
  1.4344559e+00   8.9417607e-02
  1.8848581e+00   8.5422456e-02
 -1.6678512e+00   3.3208344e-02
 -8.6964649e-01   9.8433539e-02
 -1.8040490e-01   5.2293461e-02
  4.9483399e+00   8.7392576e-02
  8.4042543e-01   7.0112556e-02
 -3.2268999e+00   9.9118352e-02
  1.7412679e+00   6.7230120e-02
  1.2173834e+00   5.0935641e-02
  3.7805283e-01   6.2628359e-02
  3.2531071e-01   6.6500284e-02
 -1.9292781e+00   9.0954617e-02
  2.0339506e+00   7.0207864e-02
 -2.9248264e+00   6.4774923e-02
 -2.1102374e+00   5.0397243e-02
 -3.5980219e-01   4.9754180e-02
  2.5441618e+00   6.6003829e-02
 -1.2901865e+00   8.3450668e-02
 -6.6539991e-01   7.6618291e-02
 -1.4526205e+00   8.9987576e-02
 -1.2152177e+00   8.5724197e-02
 -4.9451873e-01   6.3888051e-02
  1.6834654e+00   4.3114532e-02
  5.1516157e-01   7.3273614e-02
  1.8009773e+00   7.6980956e-02
 -6.4190589e-03   8.1249110e-02
  4.6400115e-01   3.9111622e-02
  2.8133997e-01   6.0666524e-02
 -2.4904032e+00   4.7553476e-02
 -4.8045602e-01   7.3628247e-02
 -6.6022193e-01   8.2051426e-02
 -1.1197189e+00   8.9930318e-02
  1.6317470e+00   6.4015090e-02
  6.3523406e-01   9.7541533e-02
 -1.4021434e+00   1.0000000e-01
  1.8388852e-01   6.2087998e-02
  1.3854340e+00   8.5494787e-02
  7.2653961e-01   9.8585457e-02
 -1.4508924e+00   6.6869743e-02
  2.0342669e+00   7.2961330e-02
 -1.1768310e+00   5.3182933e-02
 -1.4031823e+00   6.2493004e-02
 -7.2017832e+00   4.5467641e-02
  2.2548437e+00   6.3997820e-02
 -2.5910297e-01   3.3483982e-02
 -1.2370597e+00   6.2406790e-02
 -4.5803942e-02   7.5564317e-02
  8.5595542e-01   8.1617370e-02
  3.9160461e+00   8.7223046e-02
  1.0385536e+00   8.7601885e-02
 -3.2440085e+00   6.7622587e-02
  3.5568094e+00   8.5754536e-02
 -7.1018195e-01   4.2969301e-02
 -3.1165424e-01   6.2442660e-02
  1.6259520e+00   5.4141197e-02
 -3.0782108e+00   4.6388306e-02
  1.6267382e+00   9.4879150e-02
  9.8775017e-01   9.8971270e-02
 -2.5366178e+00   8.6082213e-02
  6.9771880e-01   4.0163532e-02
 -1.4602511e-01   8.4634990e-02
  4.0759981e-01   2.4808288e-02
 -2.0401945e+00   4.9752787e-02
 -7.4525678e-01   1.0000000e-01
 -4.9753752e-01   8.3998859e-02
  3.6529701e+00   9.8383017e-02
 -2.5725651e+00   6.8527780e-02
 -1.0834998e+00   7.3172703e-02
 -9.3602806e-01   9.6654452e-02
  2.3456361e+00   5.3065196e-02
  1.8097998e+00   6.7339145e-02
 -4.4024134e-01   6.6739850e-02
  1.0154163e+00   6.3321956e-02
  1.7785293e+00   5.2426334e-02
 -6.8625510e-01   7.6144129e-02
  1.7072200e+00   9.5753089e-02
  5.5690765e-01   1.0000000e-01
  2.6007156e+00   8.1781320e-02
  1.4619085e-01   9.3084671e-02
  7.0885003e-01   4.9584351e-02
 -2.2044649e+00   8.9740545e-02
 -1.3612287e+00   5.8253530e-02
 -7.7290076e-01   2.5353514e-02
 -6.7373234e-01   8.5184313e-02
 -3.4750414e+00   9.0305634e-02
  2.8607395e-01   5.3905256e-02
  7.0867941e-02   4.0883310e-02
  1.1421358e-01   4.1148938e-02
  2.0541770e+00   6.1289787e-02
 -1.4533625e+00   6.0120586e-02
  1.4543462e+00   5.3616945e-02
 -1.3588850e-01   8.1937626e-02
 -1.1822480e+00   8.3158635e-02
  1.3296673e+00   6.4475514e-02
  4.2239766e+00   9.8570213e-02
 -3.1582928e+00   3.7994925e-02
 -1.9896719e+00   7.3192351e-02
 -1.6329718e+00   6.7194998e-02
 -7.4444294e-01   6.0564213e-02
 -3.4109862e+00   9.5670380e-02
 -3.4032550e+00   6.0930137e-02
  7.1193933e-02   4.7997423e-02
  1.0382760e+00   4.1318458e-02
  1.6799487e+00   4.7767866e-02
  3.7817905e+00   9.8459959e-02
  1.3712175e+00   8.5206933e-02
 -6.0720336e-01   3.4647830e-02
  1.8678106e+00   7.6852366e-02
 -1.9948639e+00   9.9235229e-02
  5.4589581e-01   7.0770346e-02
  8.8556921e-01   7.6479971e-02
 -1.1615354e+00   7.7123106e-02
  2.6361144e-01   5.3682692e-02
  9.7202867e-02   5.4788962e-02
 -3.9808846e-01   6.8718128e-02
 -3.6215436e-01   6.0384441e-02
 -2.0900614e+00   8.6295947e-02
 -4.9947241e-01   6.1787903e-02
  8.5485107e-01   9.7427070e-02
  5.0670633e+00   7.4181795e-02
  1.6262355e+00   6.3402668e-02
 -8.7350804e-01   6.0794998e-02
 -1.1771108e+00   9.1900609e-02
  2.8911698e+00   6.5917559e-02
 -9.1593498e-01   8.5300051e-02
 -1.9835880e+00   5.8406327e-02
 -2.7278411e-01   4.0034492e-02
 -9.2539676e-02   9.6185252e-02
  3.2007575e+00   6.4035915e-02
 -4.0761564e-02   4.5593102e-02
  9.6248144e-01   7.5366437e-02
 -2.6004791e+00   9.5918968e-02
  4.6663061e-02   9.7427554e-02
  1.8233014e+00   4.9891271e-02
  5.9849590e-01   6.0152404e-02
  2.2570734e+00   7.5340077e-02
 -1.1693224e+00   7.7884562e-02
  4.3256065e-01   8.4646791e-02
 -8.1766367e-01   8.3063208e-02
  9.1942608e-01   5.0372619e-02
  1.1489475e+00   7.9432048e-02
 -3.6755311e+00   5.7090715e-02
  1.5583984e+00   4.0514838e-02
  7.7185112e-01   9.0992324e-02
 -7.5442904e-01   7.7292919e-02
  2.1568837e+00   9.1275215e-02
  4.8806338e+00   5.0997857e-02
  1.1104242e+00   9.0814561e-02
  1.2802964e+00   8.6287513e-02
  2.0529773e+00   5.0776053e-02
  3.0088372e+00   8.6791493e-02
 -1.2951032e+00   4.7238756e-02
 -2.3533638e+00   7.6989017e-02
  7.5358385e-01   4.5594696e-02
 -1.5354382e+00   7.6368012e-02
  1.4196749e+00   7.3560394e-02
 -2.5384402e+00   8.9572132e-02
  2.1539524e+00   3.4992278e-02
 -5.1679607e-02   8.3771177e-02
 -6.2381530e-01   9.6346259e-02
  1.7983446e+00   9.3594544e-02
 -1.2377441e+00   9.1108285e-02
  1.7266219e+00   7.7904105e-02
  2.4522949e-02   9.8502286e-02
  3.2629750e+00   9.5734283e-02
 -2.1736209e+00   6.8540372e-02
  6.0851592e-01   8.3451174e-02
 -3.2018049e+00   5.4019649e-02
 -2.3152411e+00   7.5090699e-02
 -1.6080933e+00   4.7023650e-02
 -4.1469222e-01   8.9399524e-02
  4.0524707e+00   9.7692467e-02
 -8.2922226e-01   2.8778017e-02
 -8.1267971e-01   7.8894451e-02
 -8.2506454e-01   6.5378256e-02
 -2.8327005e+00   7.4235916e-02
  1.6674318e+00   4.8808049e-02
  1.6766840e+00   6.7588896e-02
 -9.0279096e-01   7.6447457e-02
 -2.7524943e+00   6.7732774e-02
 -4.0930241e-01   9.4581626e-02
  2.9081001e+00   8.3460420e-02
  5.0562453e-03   8.9706533e-02
 -2.0830691e+00   4.6986137e-02
 -1.1655273e+00   7.1432777e-02
 -6.5312445e-01   9.3963578e-02
  2.9988840e-01   8.4785864e-02
 -4.0382248e-01   3.5699263e-02
  5.4221382e+00   4.7962073e-02
 -1.1091604e+00   8.0444142e-02
 -2.7406326e-01   4.0163409e-02
  3.6248583e-01   9.7975001e-02
  6.8536168e-01   7.0873357e-02
  1.3908597e+00   6.9793388e-02
 -6.1392421e-01   8.2133822e-02
  6.9844633e-01   8.6016171e-02
 -1.0869049e+00   6.1187118e-02
  4.2518268e+00   7.1806736e-02
 -2.5927801e+00   9.8630421e-02
  1.7513478e+00   3.0242955e-02
 -3.7543552e+00   7.4364804e-02
 -3.4212346e+00   9.6245214e-02
 -2.7087709e-01   9.6073277e-02
  1.0126951e+00   5.2825224e-02
  3.3392228e-02   9.4960615e-02
 -6.4044379e-02   3.8215719e-02
  4.4026265e+00   7.1664214e-02
  1.1364628e+00   9.5712997e-02
  3.5729703e-01   8.0454901e-02
  2.0583041e-01   9.1880843e-02
 -3.9836960e+00   8.0731370e-02
 -1.3036137e+00   5.5734143e-02
 -3.5217470e-01   5.2335437e-02
  1.3437403e+00   8.2739599e-02
  1.3017563e+00   8.1876785e-02
 -1.6307777e+00   7.0065089e-02
 -1.5184791e+00   9.5323190e-02
  1.7796196e+00   8.9076072e-02
 -1.2991753e+00   8.3188601e-02
  2.1883302e+00   3.5369616e-02
 -6.2524414e-01   5.5275608e-02
  3.2148304e+00   7.5109296e-02
 -1.9004786e+00   6.5698251e-02
  1.5469718e+00   8.7117091e-02
  1.5630017e-01   8.0994293e-02
  1.0411406e+00   5.7953611e-02
  1.0768650e+00   9.3379363e-02
 -3.8366344e+00   4.4669319e-02
  1.3149655e+00   6.7043453e-02
 -1.9188170e-01   5.0772958e-02
  1.0043831e+00   8.7892592e-02
  1.8882437e+00   6.6219501e-02
 -2.2690639e+00   5.5367220e-02
 -9.6786904e-01   6.9904700e-02
 -3.3035941e+00   9.3538031e-02
 -1.1664801e+00   9.0962656e-02
  4.8667604e-01   7.2764270e-02
  2.8401256e+00   5.4998633e-02
  3.6400452e-01   6.5720960e-02
  1.9970865e+00   6.0683116e-02
  2.4908757e+00   6.0744163e-02
 -2.5929065e+00   3.0951463e-02
 -1.0744624e+00   3.5068512e-02
  5.5610549e-01   9.2396386e-02
  4.4164416e-01   5.0694328e-02
  1.9526457e+00   9.2096522e-02
 -8.3074033e-01   5.5790000e-02
 -3.1956747e+00   7.0417032e-02
 -1.1797227e+00   7.7418134e-02
  1.7480019e+00   8.6895742e-02
  1.5655333e+00   8.7660722e-02
 -1.1591534e-01   4.4391807e-02
 -3.0548240e-03   3.5334367e-02
 -1.2450782e+00   4.7225997e-02
  9.8500133e-02   8.6767547e-02
  4.8584536e-01   6.1153624e-02
 -4.3485457e-01   3.1881060e-02
 -1.4584006e+00   6.6766806e-02
  3.2787118e+00   9.7390182e-02
  1.8550866e+00   5.7366483e-02
  5.3397161e-01   7.0380479e-02
  8.4921771e-01   9.1926008e-02
  3.3314066e+00   5.5685554e-02
  3.7801843e+00   9.7475082e-02
  2.7259731e-01   9.9289805e-02
  1.3850619e-01   9.4692364e-02
 -6.0053263e-02   6.9418922e-02
  3.7611118e-01   6.8077020e-02
  3.3918817e+00   7.6185971e-02
  2.8845048e+00   5.6620393e-02
  3.5932221e+00   9.8916337e-02
  1.9671562e+00   8.8466555e-02
  2.0440052e+00   9.9900052e-02
  3.0612705e-02   7.7076711e-02
 -8.9126348e-01   4.6015494e-02
 -1.0899858e+00   8.6545534e-02
  1.1632751e+00   4.2308450e-02
  6.4969099e-01   4.7782984e-02
 -3.2680914e+00   8.0436811e-02
  3.7681947e+00   6.8348989e-02
  1.5475821e+00   4.1700929e-02
  1.4334475e+00   8.0089778e-02
 -9.5129591e-01   9.4837844e-02
 -2.0383391e+00   7.4236639e-02
  6.3981020e-01   5.9422795e-02
 -1.2038401e+00   8.8601731e-02
  2.8178582e+00   8.6910777e-02
 -7.2277737e-01   8.0823347e-02
  1.3519833e+00   9.9409759e-02
  8.3391660e-01   6.6742979e-02
  2.4271555e+00   6.1379131e-02
  3.9159232e-01   7.7768162e-02
  1.1882644e+00   5.9040319e-02
  8.0967867e-01   3.8257051e-02
 -5.8882672e-01   9.6176669e-02
  7.9152423e-01   6.2579095e-02
  1.1259737e+00   6.1608929e-02
 -1.7219446e+00   5.1227838e-02
  1.2416337e+00   5.1362045e-02
 -3.1827662e+00   7.4639350e-02
 -8.7068570e-01   4.5491215e-02
  2.1524675e+00   7.4066423e-02
  1.4991317e+00   9.4154887e-02
  7.7094692e-01   4.5303594e-02
 -3.7323682e+00   8.6290292e-02
 -4.6983852e+00   7.5474352e-02
 -6.7169845e-01   1.0000000e-01
  4.4402298e-01   7.8445137e-02
  2.7676616e+00   8.0257863e-02
  2.4387424e+00   9.5935598e-02
 -1.4846255e+00   7.2412319e-02
  5.1933903e-01   8.3758473e-02
 -3.4285393e+00   5.1921103e-02
  1.6619076e+00   8.4183536e-02
 -5.4764986e-01   2.8185165e-02
  4.8265734e+00   8.9964837e-02
 -2.0365810e+00   4.7479104e-02
  6.7723423e-02   4.7140040e-02
  1.4651318e+00   4.5520674e-02
  1.0262057e+00   5.6901284e-02
 -2.2772603e+00   7.3020220e-02
  8.6615807e-01   9.3365945e-02
 -2.5871831e-01   9.2156440e-02
  2.3987935e+00   6.2632501e-02
 -1.2465285e+00   3.8340770e-02
  2.2214596e+00   7.7859670e-02
  1.3775732e-01   7.9736687e-02
 -1.4322636e+00   5.2179936e-02
  1.1370386e+00   9.3040198e-02
 -1.7321197e+00   7.2986081e-02
  1.3588504e+00   8.5575424e-02
  4.3748793e-01   5.9909858e-02
 -3.3933631e-01   7.7161446e-02
 -3.9937944e+00   7.6172225e-02
  2.1256402e+00   5.2322466e-02
  7.9273450e-01   9.9140249e-02
  2.2848084e+00   7.1753643e-02
  1.1535374e-01   7.6271802e-02
 -1.3329250e+00   6.3007288e-02
 -7.0578212e-01   6.5310404e-02
  1.9115667e+00   7.3996715e-02
  7.9805595e-01   4.2649344e-02
 -2.0778935e+00   8.3233230e-02
  2.2941780e+00   5.1420420e-02
  5.5043089e-01   5.0993543e-02
  7.3158300e-01   3.7663143e-02
  5.3739011e-01   7.1844786e-02
  2.4761410e+00   8.4862627e-02
  3.8092864e-01   9.9518768e-02
 -1.6673288e+00   8.1805743e-02
  6.3307661e-01   8.5548855e-02
  1.4471439e+00   6.2847197e-02
  1.7159643e+00   4.9372416e-02
  3.4575835e-01   7.2716884e-02
 -3.1113396e+00   6.4900160e-02
 -2.4160690e+00   5.2616585e-02
 -3.6105889e-01   9.1603465e-02
  3.2599953e-01   6.6714071e-02
 -1.4881780e+00   6.5423191e-02
 -1.7050970e+00   7.9559907e-02
 -2.0135972e+00   8.3019838e-02
 -4.7251153e-01   7.7524714e-02
 -1.9497740e+00   8.6393021e-02
 -1.0169754e+00   8.6150907e-02
  1.8228674e+00   9.2383981e-02
  1.1704339e+00   6.1935712e-02
 -1.7385663e-01   4.3923151e-02
 -2.9186614e+00   7.0722930e-02
 -2.4391665e-01   3.7013572e-02
 -2.2650983e+00   4.1127902e-02
  1.2488203e+00   8.8533208e-02
  2.2068400e+00   6.7616053e-02
  3.5560552e-02   7.9335853e-02
  1.6170106e+00   5.7032663e-02
  1.3109730e+00   6.9393747e-02
  1.6995207e+00   7.4692450e-02
 -9.7176218e-01   7.9350844e-02
  5.5469525e-01   9.5961519e-02
 -1.7864087e+00   5.4446775e-02
  8.4268987e-01   6.6558607e-02
 -3.6572444e-01   4.0904988e-02
  1.2308203e+00   7.4855171e-02
 -1.7457225e+00   5.2228190e-02
 -6.4469934e-01   9.4359711e-02
  1.7080855e+00   4.8528396e-02
 -2.1056710e-01   9.0608977e-02
 -3.5800326e+00   3.6626600e-02
  3.7689030e+00   8.0330066e-02
 -1.6260557e-02   9.3307391e-02
  2.9627483e+00   7.4594267e-02
  1.2885493e+00   3.5805613e-02
 -1.6747921e+00   7.1007125e-02
  8.0274606e-01   8.5815586e-02
  1.2595828e-01   6.6606522e-02
  1.2083204e-01   8.7632805e-02
  1.1383654e+00   6.4471908e-02
  3.3767970e+00   5.3747751e-02
 -4.8313278e-01   8.4312409e-02
 -4.9179798e-01   8.1493236e-02
  6.3344365e-01   6.8267673e-02
 -2.6038926e+00   3.8916793e-02
 -7.6780629e-01   8.3376542e-02
  2.4857054e+00   4.8712339e-02
 -1.8073034e+00   8.3993591e-02
  7.7539772e-01   4.9667858e-02
 -3.1520145e+00   8.1578687e-02
 -2.8217266e+00   7.7517420e-02
  3.4762919e-01   6.4522482e-02
  1.9902875e+00   6.9782756e-02
 -1.6629961e+00   6.8601586e-02
  1.6244715e+00   8.3545238e-02
  1.8450859e+00   4.4988520e-02
 -5.0584966e-01   4.1503105e-02
  1.0702579e+00   7.4280530e-02
  3.8741190e+00   8.2261801e-02
 -1.7714715e+00   6.0417838e-02
  4.8691571e-01   7.2790653e-02
  9.9266857e-01   7.8850135e-02
 -5.3968778e+00   9.1752104e-02
 -9.0255445e-01   4.7282480e-02
  3.1687684e+00   7.9690591e-02
  2.1245074e+00   5.9456319e-02
 -3.1742039e-01   4.3884505e-02
  7.7001798e-01   4.2408738e-02
 -5.1698667e-01   2.0266786e-02
  8.4427673e-01   9.1880158e-02
  9.8703885e-01   9.4225995e-02
  3.0562160e+00   4.9867295e-02
 -2.7206142e+00   5.5755537e-02
  1.1106103e-01   8.6441174e-02
  4.0224025e-01   7.0450298e-02
 -3.6109395e+00   6.1607517e-02
  2.4243054e+00   4.2262234e-02
 -2.0315067e-01   5.9542093e-02
 -7.3186511e-01   5.8003116e-02
  1.3435277e-01   7.0167072e-02
 -2.4393318e+00   7.9987861e-02
 -1.3569789e+00   6.3362598e-02
  2.3259134e+00   7.0130691e-02
 -9.4705039e-01   9.7996317e-02
  4.5233434e-01   9.3789421e-02
  6.1680079e-01   9.2702836e-02
  2.8563023e-01   9.4082959e-02
  9.5940214e-01   3.2152973e-02
  3.9713423e+00   8.5820928e-02
 -2.4961746e+00   4.3310426e-02
  3.7133045e+00   8.7285846e-02
 -2.2979403e+00   9.8469846e-02
 -1.3794911e+00   5.0335277e-02
  2.4009182e+00   9.3465097e-02
 -2.7392226e-01   5.9125710e-02
 -4.1574526e-01   4.8993025e-02
  3.8235950e-01   8.4763907e-02
 -8.5589826e-01   7.8368917e-02
  1.5215470e+00   9.8822854e-02
 -2.9881926e+00   4.3633170e-02
  1.1648240e+00   6.9652312e-02
 -1.2869407e+00   6.4142145e-02
 -2.3529802e-01   9.0008929e-02
 -1.5619416e+00   6.1191522e-02
  2.7007821e-01   4.7712848e-02
  4.4446669e+00   9.5253736e-02
  5.4752905e-02   1.0000000e-01
 -1.1410737e-01   6.0392432e-02
  2.9754069e+00   9.7982980e-02
  1.9080796e+00   9.2015162e-02
 -4.0591822e+00   5.5978395e-02
 -1.8310605e+00   9.9030308e-02
 -1.2293609e+00   5.5046245e-02
 -3.0910878e+00   2.6465451e-02
  3.4499700e+00   8.5534252e-02
 -2.2332723e+00   7.9611503e-02
 -8.6547905e-01   9.1561370e-02
  1.5781653e-01   7.5579010e-02
  2.3446511e-01   6.9523200e-02
 -2.7190515e-01   9.2052959e-02
 -2.0663543e+00   7.6763093e-02
  4.2388776e-01   7.2818108e-02
  2.1500399e-03   5.9709169e-02
 -1.7142864e+00   2.1939091e-02
  2.0978904e+00   3.0572720e-02
  1.1643085e+00   8.6991638e-02
 -2.4423217e-02   5.8621626e-02
 -2.6556805e-01   5.9310231e-02
  1.5083052e+00   6.4050913e-02
 -2.3726485e+00   3.5734460e-02
 -2.4832819e+00   9.0356953e-02
  5.1341778e-01   5.8645207e-02
 -1.9299804e+00   8.5903347e-02
  1.0571129e+00   9.0459667e-02
 -3.0781099e-01   9.4892420e-02
  1.6000885e+00   9.5828325e-02
  2.6524022e+00   7.3184215e-02
 -3.8179653e+00   6.7626432e-02
  2.7618136e+00   3.2474704e-02
  2.3029411e+00   9.1754332e-02
  1.2749045e+00   8.5946925e-02
 -1.2181046e+00   6.0483333e-02
  4.6682543e-01   7.8112625e-02
  9.8612946e-01   5.5903550e-02
  6.4760464e-01   5.7151202e-02
 -8.9748216e-01   7.8160994e-02
 -5.8505785e-01   8.2216956e-02
 -5.8628833e-01   3.6669649e-02
  3.4225363e-01   6.7298733e-02
  1.4644889e+00   3.6581378e-02
  9.4616240e-01   7.7194698e-02
  1.7299038e+00   7.7933922e-02
  2.4323246e+00   4.3004520e-02
 -1.3076028e+00   7.0702605e-02
 -2.9149683e+00   5.5045530e-02
 -2.6313913e+00   9.1343634e-02
 -4.2004485e+00   7.3939450e-02
 -3.0627954e+00   6.9166660e-02
  1.2208183e+00   9.8406926e-02
  2.7529027e+00   7.2609410e-02
  1.3796521e+00   7.8843765e-02
 -1.0708793e+00   3.5205651e-02
  6.8096870e-01   1.0000000e-01
  3.5765529e-01   5.3070802e-02
 -1.5254687e+00   8.8889554e-02
  7.2045112e-01   9.0797149e-02
 -2.4172180e+00   5.2584700e-02
 -1.1288624e+00   5.4855157e-02
  1.0837569e+00   5.9357204e-02
  3.3507838e+00   9.0826415e-02
 -2.4384468e+00   1.0000000e-01
  2.4297595e+00   6.5710790e-02
 -1.0315500e+00   3.6438316e-02
  1.8040313e-01   9.3582451e-02
 -4.5060477e-01   3.3077668e-02
  3.9090207e+00   7.1200140e-02
  2.5216053e+00   8.1029750e-02
  1.6418817e+00   4.9695712e-02
 -4.3048048e+00   9.6152082e-02
  1.4132012e-01   6.3642822e-02
  2.6298950e+00   6.1617680e-02
  1.6779138e+00   6.9950216e-02
  9.6166188e-01   4.7882766e-02
  2.4991448e+00   6.3798197e-02
  8.6403006e-01   5.5949952e-02
  1.4557140e+00   6.1387330e-02
  1.6698747e+00   8.0639310e-02
  2.1949890e+00   7.4818574e-02
  2.1375513e+00   6.6515550e-02
  1.5952362e-01   4.3334335e-02
 -9.1068226e-01   8.4884472e-02
 -3.0665829e+00   9.0490706e-02
 -1.0609604e-01   5.2515455e-02
 -2.4465756e+00   8.6386859e-02
 -3.8581712e+00   5.5522118e-02
 -1.6838558e+00   8.7787896e-02
 -1.1676367e-01   4.2389680e-02
  1.9295783e+00   5.6925472e-02
 -2.5142350e+00   9.2608944e-02
 -1.5101892e+00   8.9116141e-02
 -2.1612389e+00   3.6507793e-02
  1.8468835e+00   8.7468334e-02
  1.5210197e+00   8.5995950e-02
  2.9291841e-01   7.4034490e-02
  1.1998844e+00   5.0378636e-02
 -2.3468728e+00   9.3851566e-02
  1.0904495e+00   6.0132995e-02
 -1.0781158e+00   6.1296947e-02
  1.3522546e-01   6.5523736e-02
 -4.4802874e-01   7.1829751e-02
  3.5448563e-01   4.1747976e-02
  2.7850533e+00   9.5897980e-02
 -2.1769958e+00   9.7517088e-02
  2.1260595e+00   3.9241277e-02
 -2.5011510e-01   7.5989455e-02
 -1.1852988e+00   5.1408827e-02
 -4.5911741e+00   5.4192565e-02
 -3.9244618e+00   9.8462097e-02
 -2.7897890e+00   7.5677365e-02
  1.9009259e+00   7.0180692e-02
 -5.2714825e-01   4.9292192e-02
 -4.4272370e+00   8.1990078e-02
  1.6588603e+00   5.8889445e-02
 -1.6455100e+00   9.5302030e-02
  3.0299580e-01   5.7229888e-02
 -4.9214074e-01   5.7021003e-02
  2.2223686e-01   6.7701787e-02
  3.3019512e+00   7.6133959e-02
  3.7840426e-01   5.3508822e-02
 -7.0282894e-01   5.2766465e-02
  6.1468947e-01   7.6764211e-02
 -1.2762625e+00   9.2501111e-02
  9.6392685e-01   8.9423172e-02
 -6.3056552e-01   3.7433457e-02
 -1.0548609e-01   9.9955849e-02
 -3.0612099e+00   9.3503095e-02
 -3.2409930e-01   8.0350697e-02
  1.0236708e+00   8.5346334e-02
 -2.5961535e+00   6.4593680e-02
  1.1280874e+00   4.6996348e-02
 -1.7248023e+00   5.5906121e-02
 -1.3191737e+00   2.9508589e-02
  1.2817511e-01   8.6852849e-02
 -3.0092454e-01   9.4947234e-02
  6.2187552e+00   9.4942696e-02
 -4.1948754e-01   8.8215709e-02
  2.6324968e+00   8.8974655e-02
  2.3636840e-01   8.7084405e-02
  5.4499966e-01   8.2873605e-02
  2.7714543e+00   7.9097629e-02
  1.2898121e+00   8.7939195e-02
 -2.4239218e+00   9.1160990e-02
  4.0292640e+00   3.8874861e-02
 -1.3102889e+00   4.1575134e-02
  2.7301139e-01   8.4923938e-02
 -2.0471635e+00   5.8497392e-02
  2.2300441e+00   6.4695410e-02
 -1.3567699e+00   4.0327609e-02
 -1.3115112e+00   3.8962360e-02
 -1.6053855e+00   5.5523772e-02
 -1.9293189e+00   4.1736677e-02
  7.0397925e-01   9.9313095e-02
 -1.1231198e+00   5.2650414e-02
  2.3592860e-01   4.1982006e-02
  2.1634314e+00   7.5941972e-02
 -3.4744275e+00   7.2734676e-02
 -3.0868879e-01   6.1941523e-02
 -5.8143669e-01   8.8632539e-02
  6.6991192e-01   4.6954915e-02
  2.2505577e+00   5.4114919e-02
 -2.2487335e+00   7.4670233e-02
  3.4334486e+00   7.2278954e-02
  2.7150488e+00   9.7638555e-02
 -2.5371125e+00   8.5648753e-02
  3.2452483e+00   5.7566900e-02
 -3.6329213e-01   8.8769786e-02
  1.0069914e+00   6.9861487e-02
 -3.3063754e-01   4.9688265e-02
  1.4554476e+00   5.7431009e-02
 -9.3101412e-01   6.2096678e-02
 -1.0406673e+00   3.2326706e-02
  2.9441795e-01   9.9986486e-02
 -4.0849093e-01   4.5771819e-02
 -2.1002004e+00   8.3549775e-02
  2.9600778e-01   4.8667405e-02
 -2.2846618e+00   7.7917680e-02
 -2.4309700e+00   9.4613962e-02
  2.0800798e+00   8.6116172e-02
  2.0657222e+00   6.7732252e-02
 -7.9147726e-01   6.5810360e-02
 -8.5322630e-01   7.4688442e-02
  1.6939625e+00   3.3762798e-02
 -1.2667351e+00   8.5495904e-02
  6.3412273e-01   6.8429209e-02
 -7.3135388e-01   3.6181502e-02
 -1.3216097e+00   7.8539498e-02
 -1.2783587e+00   9.7072363e-02
  1.6370291e-01   5.8442689e-02
 -7.1585500e-01   4.7369953e-02
  1.8751512e+00   5.4817412e-02
 -2.2944615e+00   4.9798895e-02
 -6.2345004e-01   9.4922431e-02
  2.1759326e+00   5.6302622e-02
 -1.2515338e-01   2.8424725e-02
 -1.6378591e+00   7.3430888e-02
 -2.4429898e-01   9.4091415e-02
  4.2029864e-01   8.1768043e-02
 -4.2969046e+00   6.6111982e-02
  2.4130781e+00   7.4610740e-02
  2.6651004e-01   5.8661398e-02
 -2.5098979e-01   6.3290611e-02
 -1.1125939e+00   6.3159958e-02
  5.2246171e-01   9.6754789e-02
  6.2032861e-01   5.5426337e-02
 -9.6548331e-01   8.3256066e-02
 -1.1288952e+00   7.0228890e-02
 -3.8904734e+00   8.1287168e-02
  7.7102262e-01   5.5167291e-02
  7.1642578e-01   5.1727250e-02
  2.1303581e-01   5.8957331e-02
  7.4655432e-01   4.5965448e-02
  2.3195167e+00   5.4175008e-02
 -7.6656137e-03   4.5538191e-02
 -1.8171648e+00   9.4975524e-02
 -5.4342991e-01   8.3404765e-02
 -1.4622717e-01   7.1637593e-02
 -9.6807539e-01   9.4199091e-02
  6.3854527e-01   8.8641815e-02
 -1.1855364e+00   7.1655802e-02
  2.3041384e+00   7.6607242e-02
 -1.4003818e+00   6.0182650e-02
  2.5719395e-01   4.6325427e-02
  1.9495094e+00   9.6927062e-02
  2.5296087e+00   6.8419226e-02
  2.2009510e-01   5.6347243e-02
  1.1273406e+00   6.2786803e-02
  1.4059466e+00   5.5379324e-02
 -2.3797925e+00   6.0079582e-02
  1.8075804e-01   4.5673061e-02
  1.7921898e-01   7.8101382e-02
 -2.4580562e+00   4.7154553e-02
  3.8913456e-01   6.7043550e-02
  1.4291155e+00   6.5475821e-02
  2.0753577e+00   8.6343750e-02
 -1.1407548e-01   7.8393631e-02
 -2.9629364e+00   2.8710073e-02
  3.3738458e-01   8.0554731e-02
 -5.2171703e-02   6.1497372e-02
  4.8124657e+00   7.1683638e-02
 -1.2495164e+00   4.6066370e-02
 -4.4510123e-01   8.8596202e-02
  2.0642939e+00   5.7133012e-02
 -6.9310457e-01   5.4830495e-02
  2.7054909e-01   5.9577964e-02
 -1.2969061e+00   8.3214596e-02
 -1.0496321e+00   9.2260979e-02
  1.0215255e+00   6.3460022e-02
 -9.7678304e-01   2.3647115e-02
  1.4226888e+00   4.9380481e-02
 -7.9026496e-01   8.6808018e-02
 -2.2844815e+00   8.3141722e-02
 -1.3280975e+00   9.9405371e-02
 -1.3059959e+00   4.4241142e-02
  1.0870041e+00   9.2993625e-02
  4.9636078e-01   9.4320886e-02
 -1.5506926e+00   7.7506781e-02
  3.7454751e-01   4.9774420e-02
  5.9119586e-02   8.2778029e-02
 -1.6523045e+00   9.3859203e-02
 -1.2654381e+00   8.2773924e-02
  1.6304233e+00   5.2936468e-02
  2.3825765e+00   9.1142565e-02
 -1.0702828e-02   8.8310190e-02
 -2.0288641e+00   8.2211822e-02
  4.1182828e+00   5.2129511e-02
  1.3520148e+00   6.8139918e-02
 -2.5085160e-01   5.1688075e-02
  3.2202122e+00   7.4955590e-02
 -1.2496207e+00   7.2712794e-02
 -3.7962050e+00   5.8341373e-02
  2.5464740e+00   9.4821841e-02
  4.4849601e-01   5.8830090e-02
 -3.2943468e+00   8.6065158e-02
 -6.6448361e-01   4.8742570e-02
  3.3289012e-01   7.9689264e-02
  3.1325333e+00   4.7108766e-02
  1.7074376e+00   8.9538217e-02
  1.2741262e-01   4.2142272e-02
 -1.7658848e+00   3.9302915e-02
  1.7070965e+00   5.5522248e-02
 -6.6464698e-01   8.9398935e-02
 -1.8867048e+00   7.5728178e-02
 -2.1177308e-01   3.6424268e-02
 -4.4156569e-01   8.4262282e-02
 -1.8455236e+00   5.2502677e-02
 -7.7759635e-01   8.2428753e-02
  1.7894062e+00   3.6440406e-02
  1.7497659e+00   9.3533449e-02
  6.9592029e-01   7.8423336e-02
  1.1595536e+00   5.3321492e-02
  9.4014370e-01   7.7724032e-02
 -3.6385424e+00   5.9592437e-02
  3.6343877e+00   9.3118608e-02
  1.3793662e+00   4.8754856e-02
 -2.3830225e-01   4.6301477e-02
  2.0388370e-02   5.6953151e-02
 -3.5363064e+00   9.4634376e-02
  3.3824162e+00   7.6601386e-02
  2.2439442e+00   9.0533920e-02
  5.6118321e-01   6.5677062e-02
 -9.7228199e-01   9.3118176e-02
 -9.1725695e-01   3.6766686e-02
  2.4531124e+00   6.8487898e-02
  2.8544648e+00   8.2377017e-02
 -1.7665753e+00   9.7594135e-02
 -4.4832325e-01   5.7836141e-02
 -3.3450525e+00   6.1454069e-02
 -1.7163715e+00   4.8575338e-02
 -5.5776744e+00   5.9327867e-02
  1.2034506e+00   7.9975277e-02
 -3.8576236e+00   9.7710155e-02
 -2.2264780e-01   4.6335980e-02
 -1.6861747e-03   7.3986508e-02
  2.3112185e+00   6.9013178e-02
 -1.0226922e+00   6.7664720e-02
  3.8274186e+00   7.3269710e-02
  2.9848874e-01   8.2525402e-02
 -1.0561606e+00   2.7370591e-02
  2.1094832e+00   6.1446603e-02
  1.2532643e+00   5.9132554e-02
 -1.6853160e-01   6.6025101e-02
 -1.6719827e-01   9.8702341e-02
 -8.3413813e-03   6.3130543e-02
 -1.1870540e+00   8.9908324e-02
 -1.8940775e-01   6.3444406e-02
  2.1675980e+00   7.1734495e-02
  2.1470823e+00   7.7074572e-02
  8.7177984e-02   2.1745000e-02
 -2.7382791e+00   5.5905163e-02
  2.6405933e+00   8.7390982e-02
 -1.9978514e+00   4.1248728e-02
  7.0729864e-01   8.0849320e-02
  1.0659934e+00   6.9196716e-02